# vtk DataFile Version 2.0
VTK from Matlab
ASCII
DATASET STRUCTURED_GRID
DIMENSIONS 5 5 1
POINTS 25 float
0.00 0.00 0.00 0.25 0.00 0.00 0.50 0.00 0.00 0.75 0.00 0.00 1.00 0.00 0.00 0.00 0.25 0.00 0.25 0.25 0.00 0.50 0.25 0.00 0.75 0.25 0.00 1.00 0.25 0.00 0.00 0.50 0.00 0.25 0.50 0.00 0.50 0.50 0.00 0.75 0.50 0.00 1.00 0.50 0.00 0.00 0.75 0.00 0.25 0.75 0.00 0.50 0.75 0.00 0.75 0.75 0.00 1.00 0.75 0.00 0.00 1.00 0.00 0.25 1.00 0.00 0.50 1.00 0.00 0.75 1.00 0.00 1.00 1.00 0.00 
POINT_DATA 25
SCALARS title float
LOOKUP_TABLE default
-79.03 -79.03 -79.03 -79.03 -79.03 -78.92 -78.92 -78.92 -78.92 -78.92 -78.68 -78.68 -78.68 -78.68 -78.68 -78.51 -78.51 -78.51 -78.51 -78.51 -78.45 -78.45 -78.45 -78.45 -78.45 